
                                 *****************
                                 * O   R   C   A *
                                 *****************

           --- An Ab Initio, DFT and Semiempirical electronic structure package ---

                  #######################################################
                  #                        -***-                        #
                  #          Department of theory and spectroscopy      #
                  #               Directorship: Frank Neese             #
                  #        Max Planck Institute fuer Kohlenforschung    #
                  #                Kaiser Wilhelm Platz 1               #
                  #                 D-45470 Muelheim/Ruhr               #
                  #                      Germany                        #
                  #                                                     #
                  #                  All rights reserved                #
                  #                        -***-                        #
                  #######################################################


                         Program Version 4.2.0 -  RELEASE  -


 With contributions from (in alphabetic order):
   Daniel Aravena         : Magnetic Suceptibility
   Michael Atanasov       : Ab Initio Ligand Field Theory (pilot matlab implementation)
   Alexander A. Auer      : GIAO ZORA, VPT2
   Ute Becker             : Parallelization
   Giovanni Bistoni       : ED, misc. LED, open-shell LED, HFLED
   Martin Brehm           : Molecular dynamics
   Dmytro Bykov           : SCF Hessian
   Vijay G. Chilkuri      : MRCI spin determinant printing, contributions to CSF-ICE
   Dipayan Datta          : RHF DLPNO-CCSD density
   Achintya Kumar Dutta   : EOM-CC, STEOM-CC
   Dmitry Ganyushin       : Spin-Orbit,Spin-Spin,Magnetic field MRCI
   Miquel Garcia          : C-PCM Hessian, Gaussian charge scheme
   Yang Guo               : DLPNO-NEVPT2, CIM, IAO-localization
   Andreas Hansen         : Spin unrestricted coupled pair/coupled cluster methods
   Benjamin Helmich-Paris : CASSCF linear response (MC-RPA)
   Lee Huntington         : MR-EOM, pCC
   Robert Izsak           : Overlap fitted RIJCOSX, COSX-SCS-MP3, EOM
   Christian Kollmar      : KDIIS, OOCD, Brueckner-CCSD(T), CCSD density
   Simone Kossmann        : Meta GGA functionals, TD-DFT gradient, OOMP2, MP2 Hessian
   Martin Krupicka        : AUTO-CI
   Lucas Lang             : DCDCAS
   Dagmar Lenk            : GEPOL surface, SMD
   Dimitrios Liakos       : Extrapolation schemes; Compound Job, initial MDCI parallelization
   Dimitrios Manganas     : Further ROCIS development; embedding schemes
   Dimitrios Pantazis     : SARC Basis sets
   Taras Petrenko         : DFT Hessian,TD-DFT gradient, ASA, ECA, R-Raman, ABS, FL, XAS/XES, NRVS
   Peter Pinski           : DLPNO-MP2, DLPNO-MP2 Gradient
   Christoph Reimann      : Effective Core Potentials
   Marius Retegan         : Local ZFS, SOC
   Christoph Riplinger    : Optimizer, TS searches, QM/MM, DLPNO-CCSD(T), (RO)-DLPNO pert. Triples
   Tobias Risthaus        : Range-separated hybrids, TD-DFT gradient, RPA, STAB
   Michael Roemelt        : Original ROCIS implementation
   Masaaki Saitow         : Open-shell DLPNO-CCSD energy and density
   Barbara Sandhoefer     : DKH picture change effects
   Avijit Sen             : IP-ROCIS
   Kantharuban Sivalingam : CASSCF convergence, NEVPT2, FIC-MRCI
   Bernardo de Souza      : ESD, SOC TD-DFT
   Georgi Stoychev        : AutoAux, RI-MP2 NMR
   Willem Van den Heuvel  : Paramagnetic NMR
   Boris Wezisla          : Elementary symmetry handling
   Frank Wennmohs         : Technical directorship


 We gratefully acknowledge several colleagues who have allowed us to
 interface, adapt or use parts of their codes:
   Stefan Grimme, W. Hujo, H. Kruse,             : VdW corrections, initial TS optimization,
                  C. Bannwarth                     DFT functionals, gCP, sTDA/sTD-DF
   Ed Valeev, F. Pavosevic, A. Kumar             : LibInt (2-el integral package), F12 methods
   Garnet Chan, S. Sharma, J. Yang, R. Olivares  : DMRG
   Ulf Ekstrom                                   : XCFun DFT Library
   Mihaly Kallay                                 : mrcc  (arbitrary order and MRCC methods)
   Andreas Klamt, Michael Diedenhofen            : otool_cosmo (COSMO solvation model)
   Jiri Pittner, Ondrej Demel                    : Mk-CCSD
   Frank Weinhold                                : gennbo (NPA and NBO analysis)
   Christopher J. Cramer and Donald G. Truhlar   : smd solvation model
   Lars Goerigk                                  : TD-DFT with DH, B97 family of functionals
   V. Asgeirsson, H. Jonsson                     : NEB implementation
   FAccTs GmbH                                   : IRC, NEB, NEB-TS, Multilevel, MM, QM/MM, CI optimization
   S Lehtola, MJT Oliveira, MAL Marques          : LibXC Library


 Your calculation uses the libint2 library for the computation of 2-el integrals
 For citations please refer to: http://libint.valeyev.net

 Your ORCA version has been built with support for libXC version: 4.2.3
 For citations please refer to: https://tddft.org/programs/libxc/

 This ORCA versions uses:
   CBLAS   interface :  Fast vector & matrix operations
   LAPACKE interface :  Fast linear algebra routines
   SCALAPACK package :  Parallel linear algebra routines


----- Orbital basis set information -----
Your calculation utilizes the basis: def2-SVP
   F. Weigend and R. Ahlrichs, Phys. Chem. Chem. Phys. 7, 3297 (2005).

----- AuxJ basis set information -----
Your calculation utilizes the auxiliary basis: def2/J
   F. Weigend, Phys. Chem. Chem. Phys. 8, 1057 (2006).

================================================================================
                                        WARNINGS
                       Please study these warnings very carefully!
================================================================================


WARNING: Geometry Optimization
  ===> : Switching off AutoStart
         For restart on a previous wavefunction, please use MOREAD

INFO   : the flag for use of LIBINT has been found!

================================================================================
                                       INPUT FILE
================================================================================
NAME = orca.inp
|  1> ! BP86 def2-SVP def2/J Opt
|  2> 
|  3> %pal
|  4> nprocs 1
|  5> end
|  6> 
|  7> %scf
|  8> MaxIter 1200
|  9> end
| 10> 
| 11> %geom
| 12> MaxIter 1200
| 13> end
| 14> 
| 15> *xyz 0 1
| 16> C -2.013108109570002e-08 -2.397773579380616e-08 3.029270581953281e-08
| 17> H -0.6187191045745839 -0.8206213273772495 -0.36968482528141605
| 18> H -0.42562783118341985 0.9518875684226884 -0.32503906697515583
| 19> H 0.03164827994293975 -0.030935245562340518 1.0913023947686766
| 20> H 1.0126986759461434 -0.10033097150536349 -0.3965785328048132
| 21> **                         ****END OF INPUT****
================================================================================

                       *****************************
                       * Geometry Optimization Run *
                       *****************************

Geometry optimization settings:
Update method            Update   .... BFGS
Choice of coordinates    CoordSys .... Z-matrix Internals
Initial Hessian          InHess   .... Almoef's Model

Convergence Tolerances:
Energy Change            TolE     ....  5.0000e-06 Eh
Max. Gradient            TolMAXG  ....  3.0000e-04 Eh/bohr
RMS Gradient             TolRMSG  ....  1.0000e-04 Eh/bohr
Max. Displacement        TolMAXD  ....  4.0000e-03 bohr
RMS Displacement         TolRMSD  ....  2.0000e-03 bohr
Strict Convergence                ....  False
------------------------------------------------------------------------------
                        ORCA OPTIMIZATION COORDINATE SETUP
------------------------------------------------------------------------------

The optimization will be done in new redundant internal coordinates
Making redundant internal coordinates   ...  (new redundants) done
Evaluating the initial hessian          ...  (Almloef) done
Evaluating the coordinates              ...  done
Calculating the B-matrix                .... done
Calculating the G-matrix                .... done
Diagonalizing the G-matrix              .... done
The first mode is                       ....    1
The number of degrees of freedom        ....    9

    -----------------------------------------------------------------
                    Redundant Internal Coordinates


    -----------------------------------------------------------------
         Definition                    Initial Value    Approx d2E/dq
    -----------------------------------------------------------------
      1. B(H   1,C   0)                  1.0922         0.357202   
      2. B(H   2,C   0)                  1.0922         0.357202   
      3. B(H   3,C   0)                  1.0922         0.357202   
      4. B(H   4,C   0)                  1.0922         0.357202   
      5. A(H   1,C   0,H   3)          109.4712         0.290103   
      6. A(H   2,C   0,H   3)          109.4712         0.290103   
      7. A(H   1,C   0,H   4)          109.4712         0.290103   
      8. A(H   2,C   0,H   4)          109.4712         0.290103   
      9. A(H   3,C   0,H   4)          109.4712         0.290103   
     10. A(H   1,C   0,H   2)          109.4712         0.290103   
    -----------------------------------------------------------------

Number of atoms                         .... 5
Number of degrees of freedom            .... 10

         *************************************************************
         *                GEOMETRY OPTIMIZATION CYCLE   1            *
         *************************************************************
---------------------------------
CARTESIAN COORDINATES (ANGSTROEM)
---------------------------------
  C     -0.000000   -0.000000    0.000000
  H     -0.618719   -0.820621   -0.369685
  H     -0.425628    0.951888   -0.325039
  H      0.031648   -0.030935    1.091302
  H      1.012699   -0.100331   -0.396579

----------------------------
CARTESIAN COORDINATES (A.U.)
----------------------------
  NO LB      ZA    FRAG     MASS         X           Y           Z
   0 C     6.0000    0    12.011   -0.000000   -0.000000    0.000000
   1 H     1.0000    0     1.008   -1.169210   -1.550750   -0.698603
   2 H     1.0000    0     1.008   -0.804320    1.798807   -0.614235
   3 H     1.0000    0     1.008    0.059807   -0.058459    2.062263
   4 H     1.0000    0     1.008    1.913723   -0.189598   -0.749425

--------------------------------
INTERNAL COORDINATES (ANGSTROEM)
--------------------------------
 C      0   0   0     0.000000000000     0.00000000     0.00000000
 H      1   0   0     1.092199396396     0.00000000     0.00000000
 H      1   2   0     1.092199357654   109.47122042     0.00000000
 H      1   2   3     1.092199365291   109.47122572   120.00000531
 H      1   2   3     1.092199388746   109.47122253   240.00001031

---------------------------
INTERNAL COORDINATES (A.U.)
---------------------------
 C      0   0   0     0.000000000000     0.00000000     0.00000000
 H      1   0   0     2.063957742823     0.00000000     0.00000000
 H      1   2   0     2.063957669611   109.47122042     0.00000000
 H      1   2   3     2.063957684043   109.47122572   120.00000531
 H      1   2   3     2.063957728366   109.47122253   240.00001031

---------------------
BASIS SET INFORMATION
---------------------
There are 2 groups of distinct atoms

 Group   1 Type C   : 7s4p1d contracted to 3s2p1d pattern {511/31/1}
 Group   2 Type H   : 4s1p contracted to 2s1p pattern {31/1}

Atom   0C    basis set group =>   1
Atom   1H    basis set group =>   2
Atom   2H    basis set group =>   2
Atom   3H    basis set group =>   2
Atom   4H    basis set group =>   2
---------------------------------
AUXILIARY/J BASIS SET INFORMATION
---------------------------------
There are 2 groups of distinct atoms

 Group   1 Type C   : 12s5p4d2f1g contracted to 6s4p3d1f1g pattern {711111/2111/211/2/1}
 Group   2 Type H   : 5s2p1d contracted to 3s1p1d pattern {311/2/1}

Atom   0C    basis set group =>   1
Atom   1H    basis set group =>   2
Atom   2H    basis set group =>   2
Atom   3H    basis set group =>   2
Atom   4H    basis set group =>   2
------------------------------------------------------------------------------
                           ORCA GTO INTEGRAL CALCULATION
                           -- RI-GTO INTEGRALS CHOSEN --
------------------------------------------------------------------------------

                         BASIS SET STATISTICS AND STARTUP INFO

Gaussian basis set:
 # of primitive gaussian shells          ...   32
 # of primitive gaussian functions       ...   52
 # of contracted shells                  ...   18
 # of contracted basis functions         ...   34
 Highest angular momentum                ...    2
 Maximum contraction depth               ...    5
Auxiliary gaussian basis set:
 # of primitive gaussian shells          ...   56
 # of primitive gaussian functions       ...  134
 # of contracted shells                  ...   35
 # of contracted aux-basis functions     ...   93
 Highest angular momentum                ...    4
 Maximum contraction depth               ...    7
Ratio of auxiliary to basis functions    ...  2.74
Integral package used                  ... LIBINT
 One Electron integrals                  ... done
 Ordering auxiliary basis shells         ... done
 Integral threshhold             Thresh  ...  2.500e-11
 Primitive cut-off               TCut    ...  2.500e-12
 Pre-screening matrix                    ... done
 Shell pair data                         ... 
 Ordering of the shell pairs             ... done (   0.000 sec) 171 of 171 pairs
 Determination of significant pairs      ... done (   0.000 sec)
 Creation of shell pair data             ... done (   0.000 sec)
 Storage of shell pair data              ... done (   0.000 sec)
 Shell pair data done in (   0.000 sec)
 Computing two index integrals           ... done
 Cholesky decomposition of the V-matrix  ... done


Timings:
 Total evaluation time                   ...   0.087 sec (  0.001 min)
 One electron matrix time                ...   0.004 sec (  0.000 min) =  4.5%
 Schwartz matrix evaluation time         ...   0.062 sec (  0.001 min) = 71.9%
 Two index repulsion integral time       ...   0.000 sec (  0.000 min) =  0.3%
 Cholesky decomposition of V             ...   0.000 sec (  0.000 min) =  0.3%
 Three index repulsion integral time     ...   0.000 sec (  0.000 min) =  0.0%

-------------------------------------------------------------------------------
                                 ORCA SCF
-------------------------------------------------------------------------------

------------
SCF SETTINGS
------------
Hamiltonian:
 Density Functional     Method          .... DFT(GTOs)
 Exchange Functional    Exchange        .... B88
   X-Alpha parameter    XAlpha          ....  0.666667
   Becke's b parameter  XBeta           ....  0.004200
 Correlation Functional Correlation     .... P86
 LDA part of GGA corr.  LDAOpt          .... PW91-LDA
 Gradients option       PostSCFGGA      .... off
   Density functional embedding theory  .... OFF
 RI-approximation to the Coulomb term is turned on
   Number of auxiliary basis functions  .... 93


General Settings:
 Integral files         IntName         .... orca
 Hartree-Fock type      HFTyp           .... RHF
 Total Charge           Charge          ....    0
 Multiplicity           Mult            ....    1
 Number of Electrons    NEL             ....   10
 Basis Dimension        Dim             ....   34
 Nuclear Repulsion      ENuc            ....     13.4083341586 Eh

Convergence Acceleration:
 DIIS                   CNVDIIS         .... on
   Start iteration      DIISMaxIt       ....    12
   Startup error        DIISStart       ....  0.200000
   # of expansion vecs  DIISMaxEq       ....     5
   Bias factor          DIISBfac        ....   1.050
   Max. coefficient     DIISMaxC        ....  10.000
 Newton-Raphson         CNVNR           .... off
 SOSCF                  CNVSOSCF        .... on
   Start iteration      SOSCFMaxIt      ....   150
   Startup grad/error   SOSCFStart      ....  0.003300
 Level Shifting         CNVShift        .... on
   Level shift para.    LevelShift      ....    0.2500
   Turn off err/grad.   ShiftErr        ....    0.0010
 Zerner damping         CNVZerner       .... off
 Static damping         CNVDamp         .... on
   Fraction old density DampFac         ....    0.7000
   Max. Damping (<1)    DampMax         ....    0.9800
   Min. Damping (>=0)   DampMin         ....    0.0000
   Turn off err/grad.   DampErr         ....    0.1000
 Fernandez-Rico         CNVRico         .... off

SCF Procedure:
 Maximum # iterations   MaxIter         ....  1200
 SCF integral mode      SCFMode         .... Direct
   Integral package                     .... LIBINT
 Reset frequency        DirectResetFreq ....    20
 Integral Threshold     Thresh          ....  2.500e-11 Eh
 Primitive CutOff       TCut            ....  2.500e-12 Eh

Convergence Tolerance:
 Convergence Check Mode ConvCheckMode   .... Total+1el-Energy
 Convergence forced     ConvForced      .... 0
 Energy Change          TolE            ....  1.000e-08 Eh
 1-El. energy change                    ....  1.000e-05 Eh
 Orbital Gradient       TolG            ....  1.000e-05
 Orbital Rotation angle TolX            ....  1.000e-05
 DIIS Error             TolErr          ....  5.000e-07


Diagonalization of the overlap matrix:
Smallest eigenvalue                        ... 1.399e-02
Time for diagonalization                   ...    0.000 sec
Threshold for overlap eigenvalues          ... 1.000e-08
Number of eigenvalues below threshold      ... 0
Time for construction of square roots      ...    0.000 sec
Total time needed                          ...    0.001 sec

-------------------
DFT GRID GENERATION
-------------------

General Integration Accuracy     IntAcc      ...  4.340
Radial Grid Type                 RadialGrid  ... Gauss-Chebyshev
Angular Grid (max. acc.)         AngularGrid ... Lebedev-110
Angular grid pruning method      GridPruning ... 3 (G Style)
Weight generation scheme         WeightScheme... Becke
Basis function cutoff            BFCut       ...    1.0000e-11
Integration weight cutoff        WCut        ...    1.0000e-14
Grids for H and He will be reduced by one unit

# of grid points (after initial pruning)     ...   4832 (   0.0 sec)
# of grid points (after weights+screening)   ...   4717 (   0.0 sec)
nearest neighbour list constructed           ...    0.0 sec
Grid point re-assignment to atoms done       ...    0.0 sec
Grid point division into batches done        ...    0.0 sec
Reduced shell lists constructed in    0.0 sec

Total number of grid points                  ...     4717
Total number of batches                      ...       77
Average number of points per batch           ...       61
Average number of grid points per atom       ...      943
Average number of shells per batch           ...    16.96 (94.23%)
Average number of basis functions per batch  ...    31.76 (93.40%)
Average number of large shells per batch     ...    16.17 (95.31%)
Average number of large basis fcns per batch ...    30.24 (95.24%)
Maximum spatial batch extension              ...  25.60, 23.60, 19.49 au
Average spatial batch extension              ...   5.24,  4.52,  5.23 au

Time for grid setup =    0.015 sec

------------------------------
INITIAL GUESS: MODEL POTENTIAL
------------------------------
Loading Hartree-Fock densities                     ... done
Calculating cut-offs                               ... done
Setting up the integral package                    ... done
Initializing the effective Hamiltonian             ... done
Starting the Coulomb interaction                   ... done (   0.0 sec)
Reading the grid                                   ... done
Mapping shells                                     ... done
Starting the XC term evaluation                    ... done (   0.0 sec)
  promolecular density results
     # of electrons  =      9.997853005
     EX              =     -6.305962668
     EC              =     -0.321947011
     EX+EC           =     -6.627909679
Transforming the Hamiltonian                       ... done (   0.0 sec)
Diagonalizing the Hamiltonian                      ... done (   0.0 sec)
Back transforming the eigenvectors                 ... done (   0.0 sec)
Now organizing SCF variables                       ... done
                      ------------------
                      INITIAL GUESS DONE (   0.1 sec)
                      ------------------
--------------
SCF ITERATIONS
--------------
ITER       Energy         Delta-E        Max-DP      RMS-DP      [F,P]     Damp
               ***  Starting incremental Fock matrix formation  ***
  0    -40.4148942378   0.000000000000 0.08547256  0.00519347  0.1863308 0.7000
  1    -40.4480710108  -0.033176773039 0.04903834  0.00358181  0.0885238 0.7000
                               ***Turning on DIIS***
  2    -40.4595885491  -0.011517538231 0.05252809  0.00541520  0.0246163 0.0000
  3    -40.4745924236  -0.015003874514 0.03342614  0.00232245  0.0569649 0.0000
  4    -40.4806543834  -0.006061959808 0.00662650  0.00078848  0.0147082 0.0000
  5    -40.4810953607  -0.000440977279 0.00250244  0.00028870  0.0036213 0.0000
                      *** Initiating the SOSCF procedure ***
                           *** Shutting down DIIS ***
                      *** Re-Reading the Fockian *** 
                      *** Removing any level shift *** 
ITER      Energy       Delta-E        Grad      Rot      Max-DP    RMS-DP
  6    -40.48112730  -0.0000319350  0.000345  0.000345  0.001329  0.000154
               *** Restarting incremental Fock matrix formation ***
  7    -40.48112986  -0.0000025605  0.000075  0.000124  0.000306  0.000020
  8    -40.48112980   0.0000000516  0.000107  0.000077  0.000181  0.000012
                  ***Gradient check signals convergence***
              ***Rediagonalizing the Fockian in SOSCF/NRSCF***

               *****************************************************
               *                     SUCCESS                       *
               *           SCF CONVERGED AFTER   9 CYCLES          *
               *****************************************************

Setting up the final grid:

General Integration Accuracy     IntAcc      ...  4.670
Radial Grid Type                 RadialGrid  ... Gauss-Chebyshev
Angular Grid (max. acc.)         AngularGrid ... Lebedev-302
Angular grid pruning method      GridPruning ... 3 (G Style)
Weight generation scheme         WeightScheme... Becke
Basis function cutoff            BFCut       ...    1.0000e-11
Integration weight cutoff        WCut        ...    1.0000e-14
Grids for H and He will be reduced by one unit

# of grid points (after initial pruning)     ...  19788 (   0.0 sec)
# of grid points (after weights+screening)   ...  19287 (   0.0 sec)
nearest neighbour list constructed           ...    0.0 sec
Grid point re-assignment to atoms done       ...    0.0 sec
Grid point division into batches done        ...    0.1 sec
Reduced shell lists constructed in    0.1 sec

Total number of grid points                  ...    19287
Total number of batches                      ...      304
Average number of points per batch           ...       63
Average number of grid points per atom       ...     3857
Average number of shells per batch           ...    15.69 (87.18%)
Average number of basis functions per batch  ...    29.29 (86.13%)
Average number of large shells per batch     ...    14.84 (94.55%)
Average number of large basis fcns per batch ...    27.61 (94.28%)
Maximum spatial batch extension              ...  20.64, 20.64, 20.64 au
Average spatial batch extension              ...   3.21,  3.11,  3.38 au

Final grid set up in    0.1 sec
Final integration                            ... done (   0.1 sec)
Change in XC energy                          ...    -0.000202316
Integrated number of electrons               ...    10.000007216
Previous integrated no of electrons          ...     9.999753246

----------------
TOTAL SCF ENERGY
----------------

Total Energy       :          -40.48133222 Eh           -1101.55305 eV

Components:
Nuclear Repulsion  :           13.40833416 Eh             364.85932 eV
Electronic Energy  :          -53.88966638 Eh           -1466.41237 eV
One Electron Energy:          -79.72748941 Eh           -2169.49528 eV
Two Electron Energy:           25.83782303 Eh             703.08291 eV

Virial components:
Potential Energy   :          -80.34270166 Eh           -2186.23606 eV
Kinetic Energy     :           39.86136944 Eh            1084.68301 eV
Virial Ratio       :            2.01555297


DFT components:
N(Alpha)           :        5.000003608224 electrons
N(Beta)            :        5.000003608224 electrons
N(Total)           :       10.000007216449 electrons
E(X)               :       -6.555397192730 Eh       
E(C)               :       -0.328996609089 Eh       
E(XC)              :       -6.884393801819 Eh       
DFET-embed. en.    :        0.000000000000 Eh       

---------------
SCF CONVERGENCE
---------------

  Last Energy change         ...   -9.8385e-08  Tolerance :   1.0000e-08
  Last MAX-Density change    ...    1.3680e-06  Tolerance :   1.0000e-07
  Last RMS-Density change    ...    1.6304e-07  Tolerance :   5.0000e-09
  Last Orbital Gradient      ...    4.2264e-07  Tolerance :   1.0000e-05
  Last Orbital Rotation      ...    5.0405e-07  Tolerance :   1.0000e-05

             **** THE GBW FILE WAS UPDATED (orca.gbw) ****
             **** DENSITY FILE WAS UPDATED (orca.scfp) ****
             **** ENERGY FILE WAS UPDATED (orca.en.tmp) ****
             **** THE GBW FILE WAS UPDATED (orca.gbw) ****
             **** DENSITY FILE WAS UPDATED (orca.scfp) ****
----------------
ORBITAL ENERGIES
----------------

  NO   OCC          E(Eh)            E(eV) 
   0   2.0000      -9.897528      -269.3254 
   1   2.0000      -0.619566       -16.8592 
   2   2.0000      -0.346024        -9.4158 
   3   2.0000      -0.345959        -9.4140 
   4   2.0000      -0.345887        -9.4121 
   5   0.0000       0.059858         1.6288 
   6   0.0000       0.123049         3.3483 
   7   0.0000       0.123906         3.3716 
   8   0.0000       0.125713         3.4208 
   9   0.0000       0.382987        10.4216 
  10   0.0000       0.386130        10.5071 
  11   0.0000       0.389587        10.6012 
  12   0.0000       0.611838        16.6490 
  13   0.0000       0.636418        17.3178 
  14   0.0000       0.637537        17.3483 
  15   0.0000       0.639055        17.3896 
  16   0.0000       0.734716        19.9926 
  17   0.0000       1.033636        28.1267 
  18   0.0000       1.033800        28.1311 
  19   0.0000       1.467529        39.9335 
  20   0.0000       1.467690        39.9379 
  21   0.0000       1.467813        39.9412 
  22   0.0000       1.695083        46.1255 
  23   0.0000       1.696258        46.1575 
  24   0.0000       1.697461        46.1903 
  25   0.0000       2.061479        56.0957 
  26   0.0000       2.061762        56.1034 
  27   0.0000       2.062118        56.1131 
  28   0.0000       2.447613        66.6029 
  29   0.0000       2.447990        66.6132 
  30   0.0000       2.523433        68.6661 
  31   0.0000       2.826596        76.9156 
  32   0.0000       2.827939        76.9521 
  33   0.0000       2.828269        76.9611 

                    ********************************
                    * MULLIKEN POPULATION ANALYSIS *
                    ********************************

-----------------------
MULLIKEN ATOMIC CHARGES
-----------------------
   0 C :   -0.173980
   1 H :    0.043539
   2 H :    0.042337
   3 H :    0.046365
   4 H :    0.041738
Sum of atomic charges:    0.0000000

--------------------------------
MULLIKEN REDUCED ORBITAL CHARGES
--------------------------------
  0 C s       :     3.070085  s :     3.070085
      pz      :     1.028751  p :     3.085056
      px      :     1.029223
      py      :     1.027082
      dz2     :     0.006217  d :     0.018838
      dxz     :     0.002337
      dyz     :     0.001900
      dx2y2   :     0.004084
      dxy     :     0.004300
  1 H s       :     0.932831  s :     0.932831
      pz      :     0.006189  p :     0.023630
      px      :     0.007793
      py      :     0.009648
  2 H s       :     0.934111  s :     0.934111
      pz      :     0.005990  p :     0.023552
      px      :     0.006484
      py      :     0.011078
  3 H s       :     0.929955  s :     0.929955
      pz      :     0.012870  p :     0.023680
      px      :     0.005400
      py      :     0.005410
  4 H s       :     0.934613  s :     0.934613
      pz      :     0.006298  p :     0.023649
      px      :     0.011892
      py      :     0.005458


                     *******************************
                     * LOEWDIN POPULATION ANALYSIS *
                     *******************************

----------------------
LOEWDIN ATOMIC CHARGES
----------------------
   0 C :   -0.124940
   1 H :    0.031238
   2 H :    0.031087
   3 H :    0.031499
   4 H :    0.031115

-------------------------------
LOEWDIN REDUCED ORBITAL CHARGES
-------------------------------
  0 C s       :     2.845211  s :     2.845211
      pz      :     1.076171  p :     3.228548
      px      :     1.076489
      py      :     1.075888
      dz2     :     0.017007  d :     0.051181
      dxz     :     0.006316
      dyz     :     0.005141
      dx2y2   :     0.011057
      dxy     :     0.011660
  1 H s       :     0.903282  s :     0.903282
      pz      :     0.016035  p :     0.065480
      px      :     0.021482
      py      :     0.027963
  2 H s       :     0.903505  s :     0.903505
      pz      :     0.015353  p :     0.065407
      px      :     0.017019
      py      :     0.033035
  3 H s       :     0.902961  s :     0.902961
      pz      :     0.039335  p :     0.065540
      px      :     0.013109
      py      :     0.013095
  4 H s       :     0.903407  s :     0.903407
      pz      :     0.016482  p :     0.065478
      px      :     0.035705
      py      :     0.013291


                      *****************************
                      * MAYER POPULATION ANALYSIS *
                      *****************************

  NA   - Mulliken gross atomic population
  ZA   - Total nuclear charge
  QA   - Mulliken gross atomic charge
  VA   - Mayer's total valence
  BVA  - Mayer's bonded valence
  FA   - Mayer's free valence

  ATOM       NA         ZA         QA         VA         BVA        FA
  0 C      6.1740     6.0000    -0.1740     3.9903     3.9903    -0.0000
  1 H      0.9565     1.0000     0.0435     0.9930     0.9930     0.0000
  2 H      0.9577     1.0000     0.0423     0.9928     0.9928    -0.0000
  3 H      0.9536     1.0000     0.0464     0.9931     0.9931     0.0000
  4 H      0.9583     1.0000     0.0417     0.9934     0.9934     0.0000

  Mayer bond orders larger than 0.100000
B(  0-C ,  1-H ) :   0.9975 B(  0-C ,  2-H ) :   0.9978 B(  0-C ,  3-H ) :   0.9976 
B(  0-C ,  4-H ) :   0.9974 

-------
TIMINGS
-------

Total SCF time: 0 days 0 hours 0 min 1 sec 

Total time                  ....       1.118 sec
Sum of individual times     ....       1.051 sec  ( 94.0%)

Fock matrix formation       ....       0.854 sec  ( 76.4%)
  Split-RI-J                ....       0.642 sec  ( 75.2% of F)
  XC integration            ....       0.206 sec  ( 24.2% of F)
    Basis function eval.    ....       0.077 sec  ( 37.1% of XC)
    Density eval.           ....       0.027 sec  ( 12.9% of XC)
    XC-Functional eval.     ....       0.061 sec  ( 29.4% of XC)
    XC-Potential eval.      ....       0.030 sec  ( 14.3% of XC)
Diagonalization             ....       0.001 sec  (  0.1%)
Density matrix formation    ....       0.000 sec  (  0.0%)
Population analysis         ....       0.001 sec  (  0.1%)
Initial guess               ....       0.089 sec  (  8.0%)
Orbital Transformation      ....       0.000 sec  (  0.0%)
Orbital Orthonormalization  ....       0.000 sec  (  0.0%)
DIIS solution               ....       0.001 sec  (  0.1%)
SOSCF solution              ....       0.000 sec  (  0.0%)
Grid generation             ....       0.105 sec  (  9.4%)

-------------------------   --------------------
FINAL SINGLE POINT ENERGY       -40.481332218549
-------------------------   --------------------

------------------------------------------------------------------------------
                         ORCA SCF GRADIENT CALCULATION
------------------------------------------------------------------------------

Gradient of the Kohn-Sham DFT energy:
Kohn-Sham wavefunction type      ... RKS
Hartree-Fock exchange scaling    ...    0.000
Number of operators              ...    1
Number of atoms                  ...    5
Basis set dimensions             ...   34
Integral neglect threshold       ... 2.5e-11
Integral primitive cutoff        ... 2.5e-12

Nuclear repulsion gradient       ... done
One Electron Gradient            ... done
Pre-screening matrix             ... done
RI-J gradient                    ... done
Exchange-correlation gradient    ... done

------------------
CARTESIAN GRADIENT
------------------

   1   C   :   -0.000171501    0.000249549   -0.000126751
   2   H   :    0.005204204    0.006889385    0.003284184
   3   H   :    0.003592718   -0.008130834    0.002909856
   4   H   :   -0.000346229    0.000248361   -0.009426494
   5   H   :   -0.008279191    0.000743540    0.003359205

Difference to translation invariance:
           :    0.0000000000   -0.0000000000    0.0000000000

Norm of the cartesian gradient     ...    0.0185026700
RMS gradient                       ...    0.0047773689
MAX gradient                       ...    0.0094264944

-------
TIMINGS
-------

Total SCF gradient time            ...        0.347 sec

One electron gradient       ....       0.002 sec  (  0.6%)
Prescreening matrices       ....       0.003 sec  (  0.9%)
RI-J Coulomb gradient       ....       0.070 sec  ( 20.3%)
XC gradient                 ....       0.176 sec  ( 50.8%)
------------------------------------------------------------------------------
                         ORCA GEOMETRY RELAXATION STEP
------------------------------------------------------------------------------

Reading the OPT-File                    .... done
Getting information on internals        .... done
Copying old internal coords+grads       .... done
Making the new internal coordinates     .... (new redundants).... done
Validating the new internal coordinates .... (new redundants).... done
Calculating the B-matrix                .... done
Calculating the G,G- and P matrices     .... done
Transforming gradient to internals      .... done
Projecting the internal gradient        .... done
Number of atoms                         ....   5
Number of internal coordinates          ....  10
Current Energy                          ....   -40.481332219 Eh
Current gradient norm                   ....     0.018502670 Eh/bohr
Maximum allowed component of the step   ....  0.300
Current trust radius                    ....  0.300
Evaluating the initial hessian          ....  (Almloef) done
Projecting the Hessian                  .... done
Forming the augmented Hessian           .... done
Diagonalizing the augmented Hessian     .... done
Last element of RFO vector              ....  0.998668076
Lowest eigenvalues of augmented Hessian:
 -0.000955870  0.290102544  0.290102548  0.290102548  0.290102551
Length of the computed step             ....  0.051664097
The final length of the internal step   ....  0.051664097
Converting the step to cartesian space:
 Initial RMS(Int)=    0.0163376219
Transforming coordinates:
 Iter   0:  RMS(Cart)=    0.0133414523 RMS(Int)=    0.0163376322
 Iter   1:  RMS(Cart)=    0.0000041904 RMS(Int)=    0.0000050443
 Iter   2:  RMS(Cart)=    0.0000000507 RMS(Int)=    0.0000000608
done
Storing new coordinates                 .... done

                                .--------------------.
          ----------------------|Geometry convergence|-------------------------
          Item                value                   Tolerance       Converged
          ---------------------------------------------------------------------
          RMS gradient        0.0058507981            0.0001000000      NO
          MAX gradient        0.0094358197            0.0003000000      NO
          RMS step            0.0163376219            0.0020000000      NO
          MAX step            0.0263454029            0.0040000000      NO
          ........................................................
          Max(Bonds)      0.0139      Max(Angles)    0.05
          Max(Dihed)        0.00      Max(Improp)    0.00
          ---------------------------------------------------------------------

The optimization has not yet converged - more geometry cycles are needed


    ---------------------------------------------------------------------------
                         Redundant Internal Coordinates
                            (Angstroem and degrees)

        Definition                    Value    dE/dq     Step     New-Value
    ----------------------------------------------------------------------------
     1. B(H   1,C   0)                1.0922 -0.009236  0.0136    1.1058   
     2. B(H   2,C   0)                1.0922 -0.009352  0.0138    1.1060   
     3. B(H   3,C   0)                1.0922 -0.009436  0.0139    1.1061   
     4. B(H   4,C   0)                1.0922 -0.008965  0.0132    1.1054   
     5. A(H   1,C   0,H   3)          109.47 -0.000233    0.05    109.52   
     6. A(H   2,C   0,H   3)          109.47 -0.000137    0.03    109.50   
     7. A(H   1,C   0,H   4)          109.47  0.000091   -0.02    109.45   
     8. A(H   2,C   0,H   4)          109.47  0.000230   -0.05    109.43   
     9. A(H   3,C   0,H   4)          109.47 -0.000057    0.01    109.48   
    10. A(H   1,C   0,H   2)          109.47  0.000106   -0.02    109.45   
    ----------------------------------------------------------------------------

         *************************************************************
         *                GEOMETRY OPTIMIZATION CYCLE   2            *
         *************************************************************
---------------------------------
CARTESIAN COORDINATES (ANGSTROEM)
---------------------------------
  C     -0.000008   -0.000137    0.000228
  H     -0.626350   -0.830826   -0.374666
  H     -0.430762    0.963726   -0.329459
  H      0.032281   -0.031322    1.105458
  H      1.024839   -0.101442   -0.401561

----------------------------
CARTESIAN COORDINATES (A.U.)
----------------------------
  NO LB      ZA    FRAG     MASS         X           Y           Z
   0 C     6.0000    0    12.011   -0.000015   -0.000258    0.000431
   1 H     1.0000    0     1.008   -1.183630   -1.570033   -0.708016
   2 H     1.0000    0     1.008   -0.814021    1.821179   -0.622587
   3 H     1.0000    0     1.008    0.061002   -0.059190    2.089012
   4 H     1.0000    0     1.008    1.936665   -0.191697   -0.758840

--------------------------------
INTERNAL COORDINATES (ANGSTROEM)
--------------------------------
 C      0   0   0     0.000000000000     0.00000000     0.00000000
 H      1   0   0     1.105845654353     0.00000000     0.00000000
 H      1   2   0     1.106017400415   109.45029044     0.00000000
 H      1   2   3     1.106140752046   109.51705011   120.04831058
 H      1   2   3     1.105444529946   109.45332550   240.07917811

---------------------------
INTERNAL COORDINATES (A.U.)
---------------------------
 C      0   0   0     0.000000000000     0.00000000     0.00000000
 H      1   0   0     2.089745433113     0.00000000     0.00000000
 H      1   2   0     2.090069986135   109.45029044     0.00000000
 H      1   2   3     2.090303086937   109.51705011   120.04831058
 H      1   2   3     2.088987417839   109.45332550   240.07917811

 One Electron integrals                  ... done
 Pre-screening matrix                    ... done

Diagonalization of the overlap matrix:
Smallest eigenvalue                        ... 1.454e-02
Time for diagonalization                   ...    0.000 sec
Threshold for overlap eigenvalues          ... 1.000e-08
Number of eigenvalues below threshold      ... 0
Time for construction of square roots      ...    0.000 sec
Total time needed                          ...    0.001 sec

-------------------
DFT GRID GENERATION
-------------------

General Integration Accuracy     IntAcc      ...  4.340
Radial Grid Type                 RadialGrid  ... Gauss-Chebyshev
Angular Grid (max. acc.)         AngularGrid ... Lebedev-110
Angular grid pruning method      GridPruning ... 3 (G Style)
Weight generation scheme         WeightScheme... Becke
Basis function cutoff            BFCut       ...    1.0000e-11
Integration weight cutoff        WCut        ...    1.0000e-14
Grids for H and He will be reduced by one unit

# of grid points (after initial pruning)     ...   4832 (   0.0 sec)
# of grid points (after weights+screening)   ...   4721 (   0.0 sec)
nearest neighbour list constructed           ...    0.0 sec
Grid point re-assignment to atoms done       ...    0.0 sec
Grid point division into batches done        ...    0.0 sec
Reduced shell lists constructed in    0.0 sec

Total number of grid points                  ...     4721
Total number of batches                      ...       77
Average number of points per batch           ...       61
Average number of grid points per atom       ...      944
Average number of shells per batch           ...    16.96 (94.23%)
Average number of basis functions per batch  ...    31.76 (93.40%)
Average number of large shells per batch     ...    16.09 (94.86%)
Average number of large basis fcns per batch ...    30.04 (94.59%)
Maximum spatial batch extension              ...  25.60, 23.60, 19.49 au
Average spatial batch extension              ...   5.28,  4.52,  5.25 au

Time for grid setup =    0.015 sec

--------------
SCF ITERATIONS
--------------
ITER       Energy         Delta-E        Max-DP      RMS-DP      [F,P]     Damp
               ***  Starting incremental Fock matrix formation  ***
  0    -40.4815208131   0.000000000000 0.00272689  0.00017454  0.0048985 0.7000
                      *** Initiating the SOSCF procedure ***
                      *** Re-Reading the Fockian *** 
                      *** Removing any level shift *** 
ITER      Energy       Delta-E        Grad      Rot      Max-DP    RMS-DP
  1    -40.48155441  -0.0000335996  0.000709  0.000709  0.007111  0.000468
               *** Restarting incremental Fock matrix formation ***
  2    -40.48160691  -0.0000524972  0.001081  0.001938  0.004745  0.000310
  3    -40.48159475   0.0000121578  0.001575  0.001190  0.002729  0.000187
  4    -40.48161705  -0.0000222970  0.000013  0.000019  0.000045  0.000003
                 **** Energy Check signals convergence ****
              ***Rediagonalizing the Fockian in SOSCF/NRSCF***

               *****************************************************
               *                     SUCCESS                       *
               *           SCF CONVERGED AFTER   5 CYCLES          *
               *****************************************************

Setting up the final grid:

General Integration Accuracy     IntAcc      ...  4.670
Radial Grid Type                 RadialGrid  ... Gauss-Chebyshev
Angular Grid (max. acc.)         AngularGrid ... Lebedev-302
Angular grid pruning method      GridPruning ... 3 (G Style)
Weight generation scheme         WeightScheme... Becke
Basis function cutoff            BFCut       ...    1.0000e-11
Integration weight cutoff        WCut        ...    1.0000e-14
Grids for H and He will be reduced by one unit

# of grid points (after initial pruning)     ...  19788 (   0.0 sec)
# of grid points (after weights+screening)   ...  19293 (   0.0 sec)
nearest neighbour list constructed           ...    0.0 sec
Grid point re-assignment to atoms done       ...    0.0 sec
Grid point division into batches done        ...    0.1 sec
Reduced shell lists constructed in    0.1 sec

Total number of grid points                  ...    19293
Total number of batches                      ...      304
Average number of points per batch           ...       63
Average number of grid points per atom       ...     3859
Average number of shells per batch           ...    15.70 (87.23%)
Average number of basis functions per batch  ...    29.31 (86.22%)
Average number of large shells per batch     ...    14.79 (94.20%)
Average number of large basis fcns per batch ...    27.53 (93.92%)
Maximum spatial batch extension              ...  20.64, 20.64, 20.64 au
Average spatial batch extension              ...   3.26,  3.11,  3.38 au

Final grid set up in    0.1 sec
Final integration                            ... done (   0.1 sec)
Change in XC energy                          ...    -0.000202211
Integrated number of electrons               ...    10.000007814
Previous integrated no of electrons          ...     9.999707277
Total Energy       :          -40.48181926 Eh           -1101.56630 eV
  Last Energy change         ...   -1.7982e-09  Tolerance :   1.0000e-08
  Last MAX-Density change    ...    9.3288e-06  Tolerance :   1.0000e-07
             **** THE GBW FILE WAS UPDATED (orca.gbw) ****
             **** DENSITY FILE WAS UPDATED (orca.scfp) ****
             **** ENERGY FILE WAS UPDATED (orca.en.tmp) ****
             **** THE GBW FILE WAS UPDATED (orca.gbw) ****
             **** DENSITY FILE WAS UPDATED (orca.scfp) ****
Total SCF time: 0 days 0 hours 0 min 0 sec 

-------------------------   --------------------
FINAL SINGLE POINT ENERGY       -40.481819261876
-------------------------   --------------------

------------------------------------------------------------------------------
                         ORCA SCF GRADIENT CALCULATION
------------------------------------------------------------------------------

Gradient of the Kohn-Sham DFT energy:
Kohn-Sham wavefunction type      ... RKS
Hartree-Fock exchange scaling    ...    0.000
Number of operators              ...    1
Number of atoms                  ...    5
Basis set dimensions             ...   34
Integral neglect threshold       ... 2.5e-11
Integral primitive cutoff        ... 2.5e-12

Nuclear repulsion gradient       ... done
One Electron Gradient            ... done
Pre-screening matrix             ... done
RI-J gradient                    ... done
Exchange-correlation gradient    ... done

------------------
CARTESIAN GRADIENT
------------------

   1   C   :    0.000056245    0.000061105   -0.000155015
   2   H   :    0.000128166    0.000184192    0.000157378
   3   H   :    0.000084632   -0.000235947    0.000123510
   4   H   :   -0.000040846    0.000008568   -0.000275580
   5   H   :   -0.000228198   -0.000017918    0.000149707

Difference to translation invariance:
           :   -0.0000000000    0.0000000000   -0.0000000000

Norm of the cartesian gradient     ...    0.0005801982
RMS gradient                       ...    0.0001498065
MAX gradient                       ...    0.0002755800

-------
TIMINGS
-------

Total SCF gradient time            ...        0.344 sec

One electron gradient       ....       0.002 sec  (  0.6%)
Prescreening matrices       ....       0.004 sec  (  1.1%)
RI-J Coulomb gradient       ....       0.067 sec  ( 19.6%)
XC gradient                 ....       0.177 sec  ( 51.5%)
------------------------------------------------------------------------------
                         ORCA GEOMETRY RELAXATION STEP
------------------------------------------------------------------------------

Reading the OPT-File                    .... done
Getting information on internals        .... done
Copying old internal coords+grads       .... done
Making the new internal coordinates     .... (new redundants).... done
Validating the new internal coordinates .... (new redundants).... done
Calculating the B-matrix                .... done
Calculating the G,G- and P matrices     .... done
Transforming gradient to internals      .... done
Projecting the internal gradient        .... done
Number of atoms                         ....   5
Number of internal coordinates          ....  10
Current Energy                          ....   -40.481819262 Eh
Current gradient norm                   ....     0.000580198 Eh/bohr
Maximum allowed component of the step   ....  0.300
Current trust radius                    ....  0.300
Updating the Hessian (BFGS)             .... done
Forming the augmented Hessian           .... done
Diagonalizing the augmented Hessian     .... done
Last element of RFO vector              ....  0.999998612
Lowest eigenvalues of augmented Hessian:
 -0.000000940  0.289827856  0.290102545  0.290102548  0.290102551
Length of the computed step             ....  0.001665956
The final length of the internal step   ....  0.001665956
Converting the step to cartesian space:
 Initial RMS(Int)=    0.0005268216
Transforming coordinates:
 Iter   0:  RMS(Cart)=    0.0004314753 RMS(Int)=    0.0005268278
 Iter   1:  RMS(Cart)=    0.0000000585 RMS(Int)=    0.0000000678
done
Storing new coordinates                 .... done

                                .--------------------.
          ----------------------|Geometry convergence|-------------------------
          Item                value                   Tolerance       Converged
          ---------------------------------------------------------------------
          Energy change      -0.0004870433            0.0000050000      NO
          RMS gradient        0.0001787112            0.0001000000      NO
          MAX gradient        0.0002767884            0.0003000000      YES
          RMS step            0.0005268216            0.0020000000      YES
          MAX step            0.0007986175            0.0040000000      YES
          ........................................................
          Max(Bonds)      0.0004      Max(Angles)    0.02
          Max(Dihed)        0.00      Max(Improp)    0.00
          ---------------------------------------------------------------------

       The step convergence is overachieved with 
       reasonable convergence on the gradient
       Convergence will therefore be signaled now


                    ***********************HURRAY********************
                    ***        THE OPTIMIZATION HAS CONVERGED     ***
                    *************************************************


    ---------------------------------------------------------------------------
                         Redundant Internal Coordinates

                          --- Optimized Parameters ---  
                            (Angstroem and degrees)

        Definition                    OldVal   dE/dq     Step     FinalVal
    ----------------------------------------------------------------------------
     1. B(H   1,C   0)                1.1058 -0.000264  0.0004    1.1062   
     2. B(H   2,C   0)                1.1060 -0.000275  0.0004    1.1064   
     3. B(H   3,C   0)                1.1061 -0.000277  0.0004    1.1066   
     4. B(H   4,C   0)                1.1054 -0.000264  0.0004    1.1058   
     5. A(H   1,C   0,H   3)          109.52 -0.000096    0.02    109.54   
     6. A(H   2,C   0,H   3)          109.50 -0.000057    0.01    109.51   
     7. A(H   1,C   0,H   4)          109.45  0.000046   -0.01    109.44   
     8. A(H   2,C   0,H   4)          109.43  0.000104   -0.02    109.40   
     9. A(H   3,C   0,H   4)          109.48 -0.000028    0.01    109.49   
    10. A(H   1,C   0,H   2)          109.45  0.000031   -0.01    109.44   
    ----------------------------------------------------------------------------
                 *******************************************************
                 *** FINAL ENERGY EVALUATION AT THE STATIONARY POINT ***
                 ***               (AFTER    2 CYCLES)               ***
                 *******************************************************
---------------------------------
CARTESIAN COORDINATES (ANGSTROEM)
---------------------------------
  C     -0.000056   -0.000182    0.000360
  H     -0.626557   -0.831113   -0.374925
  H     -0.430835    0.964031   -0.329682
  H      0.032347   -0.031318    1.106010
  H      1.025102   -0.101418   -0.401763

----------------------------
CARTESIAN COORDINATES (A.U.)
----------------------------
  NO LB      ZA    FRAG     MASS         X           Y           Z
   0 C     6.0000    0    12.011   -0.000106   -0.000344    0.000680
   1 H     1.0000    0     1.008   -1.184021   -1.570575   -0.708505
   2 H     1.0000    0     1.008   -0.814160    1.821754   -0.623009
   3 H     1.0000    0     1.008    0.061127   -0.059182    2.090057
   4 H     1.0000    0     1.008    1.937161   -0.191653   -0.759222

--------------------------------
INTERNAL COORDINATES (ANGSTROEM)
--------------------------------
 C      0   0   0     0.000000000000     0.00000000     0.00000000
 H      1   0   0     1.106249207574     0.00000000     0.00000000
 H      1   2   0     1.106437893864   109.44401297     0.00000000
 H      1   2   3     1.106563362211   109.53664022   120.07064223
 H      1   2   3     1.105848113185   109.44391932   240.11466740

---------------------------
INTERNAL COORDINATES (A.U.)
---------------------------
 C      0   0   0     0.000000000000     0.00000000     0.00000000
 H      1   0   0     2.090508038182     0.00000000     0.00000000
 H      1   2   0     2.090864603596   109.44401297     0.00000000
 H      1   2   3     2.091101704409   109.53664022   120.07064223
 H      1   2   3     2.089750079634   109.44391932   240.11466740

---------------------
BASIS SET INFORMATION
---------------------
There are 2 groups of distinct atoms

 Group   1 Type C   : 7s4p1d contracted to 3s2p1d pattern {511/31/1}
 Group   2 Type H   : 4s1p contracted to 2s1p pattern {31/1}

Atom   0C    basis set group =>   1
Atom   1H    basis set group =>   2
Atom   2H    basis set group =>   2
Atom   3H    basis set group =>   2
Atom   4H    basis set group =>   2
---------------------------------
AUXILIARY/J BASIS SET INFORMATION
---------------------------------
There are 2 groups of distinct atoms

 Group   1 Type C   : 12s5p4d2f1g contracted to 6s4p3d1f1g pattern {711111/2111/211/2/1}
 Group   2 Type H   : 5s2p1d contracted to 3s1p1d pattern {311/2/1}

Atom   0C    basis set group =>   1
Atom   1H    basis set group =>   2
Atom   2H    basis set group =>   2
Atom   3H    basis set group =>   2
Atom   4H    basis set group =>   2
------------------------------------------------------------------------------
                           ORCA GTO INTEGRAL CALCULATION
                           -- RI-GTO INTEGRALS CHOSEN --
------------------------------------------------------------------------------

                         BASIS SET STATISTICS AND STARTUP INFO

Gaussian basis set:
 # of primitive gaussian shells          ...   32
 # of primitive gaussian functions       ...   52
 # of contracted shells                  ...   18
 # of contracted basis functions         ...   34
 Highest angular momentum                ...    2
 Maximum contraction depth               ...    5
Auxiliary gaussian basis set:
 # of primitive gaussian shells          ...   56
 # of primitive gaussian functions       ...  134
 # of contracted shells                  ...   35
 # of contracted aux-basis functions     ...   93
 Highest angular momentum                ...    4
 Maximum contraction depth               ...    7
Ratio of auxiliary to basis functions    ...  2.74
Integral package used                  ... LIBINT
 One Electron integrals                  ... done
 Ordering auxiliary basis shells         ... done
 Integral threshhold             Thresh  ...  2.500e-11
 Primitive cut-off               TCut    ...  2.500e-12
 Pre-screening matrix                    ... done
 Shell pair data                         ... 
 Ordering of the shell pairs             ... done (   0.000 sec) 171 of 171 pairs
 Determination of significant pairs      ... done (   0.000 sec)
 Creation of shell pair data             ... done (   0.000 sec)
 Storage of shell pair data              ... done (   0.000 sec)
 Shell pair data done in (   0.000 sec)
 Computing two index integrals           ... done
 Cholesky decomposition of the V-matrix  ... done


Timings:
 Total evaluation time                   ...   0.081 sec (  0.001 min)
 One electron matrix time                ...   0.003 sec (  0.000 min) =  4.3%
 Schwartz matrix evaluation time         ...   0.058 sec (  0.001 min) = 72.0%
 Two index repulsion integral time       ...   0.000 sec (  0.000 min) =  0.4%
 Cholesky decomposition of V             ...   0.000 sec (  0.000 min) =  0.3%
 Three index repulsion integral time     ...   0.000 sec (  0.000 min) =  0.0%

-------------------------------------------------------------------------------
                                 ORCA SCF
-------------------------------------------------------------------------------

------------
SCF SETTINGS
------------
Hamiltonian:
 Density Functional     Method          .... DFT(GTOs)
 Exchange Functional    Exchange        .... B88
   X-Alpha parameter    XAlpha          ....  0.666667
   Becke's b parameter  XBeta           ....  0.004200
 Correlation Functional Correlation     .... P86
 LDA part of GGA corr.  LDAOpt          .... PW91-LDA
 Gradients option       PostSCFGGA      .... off
   Density functional embedding theory  .... OFF
 RI-approximation to the Coulomb term is turned on
   Number of auxiliary basis functions  .... 93


General Settings:
 Integral files         IntName         .... orca
 Hartree-Fock type      HFTyp           .... RHF
 Total Charge           Charge          ....    0
 Multiplicity           Mult            ....    1
 Number of Electrons    NEL             ....   10
 Basis Dimension        Dim             ....   34
 Nuclear Repulsion      ENuc            ....     13.2377395036 Eh

Convergence Acceleration:
 DIIS                   CNVDIIS         .... on
   Start iteration      DIISMaxIt       ....    12
   Startup error        DIISStart       ....  0.200000
   # of expansion vecs  DIISMaxEq       ....     5
   Bias factor          DIISBfac        ....   1.050
   Max. coefficient     DIISMaxC        ....  10.000
 Newton-Raphson         CNVNR           .... off
 SOSCF                  CNVSOSCF        .... on
   Start iteration      SOSCFMaxIt      ....   150
   Startup grad/error   SOSCFStart      ....  0.003300
 Level Shifting         CNVShift        .... on
   Level shift para.    LevelShift      ....    0.2500
   Turn off err/grad.   ShiftErr        ....    0.0010
 Zerner damping         CNVZerner       .... off
 Static damping         CNVDamp         .... on
   Fraction old density DampFac         ....    0.7000
   Max. Damping (<1)    DampMax         ....    0.9800
   Min. Damping (>=0)   DampMin         ....    0.0000
   Turn off err/grad.   DampErr         ....    0.1000
 Fernandez-Rico         CNVRico         .... off

SCF Procedure:
 Maximum # iterations   MaxIter         ....  1200
 SCF integral mode      SCFMode         .... Direct
   Integral package                     .... LIBINT
 Reset frequency        DirectResetFreq ....    20
 Integral Threshold     Thresh          ....  2.500e-11 Eh
 Primitive CutOff       TCut            ....  2.500e-12 Eh

Convergence Tolerance:
 Convergence Check Mode ConvCheckMode   .... Total+1el-Energy
 Convergence forced     ConvForced      .... 0
 Energy Change          TolE            ....  1.000e-08 Eh
 1-El. energy change                    ....  1.000e-05 Eh
 Orbital Gradient       TolG            ....  1.000e-05
 Orbital Rotation angle TolX            ....  1.000e-05
 DIIS Error             TolErr          ....  5.000e-07


Diagonalization of the overlap matrix:
Smallest eigenvalue                        ... 1.455e-02
Time for diagonalization                   ...    0.000 sec
Threshold for overlap eigenvalues          ... 1.000e-08
Number of eigenvalues below threshold      ... 0
Time for construction of square roots      ...    0.000 sec
Total time needed                          ...    0.001 sec

---------------------
INITIAL GUESS: MOREAD
---------------------
Guess MOs are being read from file: orca.gbw
Input Geometry matches current geometry (good)
Input basis set matches current basis set (good)
MOs were renormalized
MOs were reorthogonalized (Cholesky)
                      ------------------
                      INITIAL GUESS DONE (   0.0 sec)
                      ------------------
-------------------
DFT GRID GENERATION
-------------------

General Integration Accuracy     IntAcc      ...  4.340
Radial Grid Type                 RadialGrid  ... Gauss-Chebyshev
Angular Grid (max. acc.)         AngularGrid ... Lebedev-110
Angular grid pruning method      GridPruning ... 3 (G Style)
Weight generation scheme         WeightScheme... Becke
Basis function cutoff            BFCut       ...    1.0000e-11
Integration weight cutoff        WCut        ...    1.0000e-14
Grids for H and He will be reduced by one unit

# of grid points (after initial pruning)     ...   4832 (   0.0 sec)
# of grid points (after weights+screening)   ...   4721 (   0.0 sec)
nearest neighbour list constructed           ...    0.0 sec
Grid point re-assignment to atoms done       ...    0.0 sec
Grid point division into batches done        ...    0.0 sec
Reduced shell lists constructed in    0.0 sec

Total number of grid points                  ...     4721
Total number of batches                      ...       77
Average number of points per batch           ...       61
Average number of grid points per atom       ...      944
Average number of shells per batch           ...    16.96 (94.23%)
Average number of basis functions per batch  ...    31.76 (93.40%)
Average number of large shells per batch     ...    16.09 (94.86%)
Average number of large basis fcns per batch ...    30.04 (94.59%)
Maximum spatial batch extension              ...  25.60, 23.60, 19.49 au
Average spatial batch extension              ...   5.28,  4.52,  5.25 au

Time for grid setup =    0.014 sec

--------------
SCF ITERATIONS
--------------
ITER       Energy         Delta-E        Max-DP      RMS-DP      [F,P]     Damp
               ***  Starting incremental Fock matrix formation  ***
                      *** Initiating the SOSCF procedure ***
                      *** Re-Reading the Fockian *** 
                      *** Removing any level shift *** 
ITER      Energy       Delta-E        Grad      Rot      Max-DP    RMS-DP
  0    -40.48161727 -40.4816172676  0.000136  0.000136  0.000268  0.000017
               *** Restarting incremental Fock matrix formation ***
  1    -40.48161734  -0.0000000763  0.000052  0.000060  0.000191  0.000010
  2    -40.48161733   0.0000000116  0.000052  0.000039  0.000088  0.000006
                  ***Gradient check signals convergence***
              ***Rediagonalizing the Fockian in SOSCF/NRSCF***

               *****************************************************
               *                     SUCCESS                       *
               *           SCF CONVERGED AFTER   3 CYCLES          *
               *****************************************************

Setting up the final grid:

General Integration Accuracy     IntAcc      ...  4.670
Radial Grid Type                 RadialGrid  ... Gauss-Chebyshev
Angular Grid (max. acc.)         AngularGrid ... Lebedev-302
Angular grid pruning method      GridPruning ... 3 (G Style)
Weight generation scheme         WeightScheme... Becke
Basis function cutoff            BFCut       ...    1.0000e-11
Integration weight cutoff        WCut        ...    1.0000e-14
Grids for H and He will be reduced by one unit

# of grid points (after initial pruning)     ...  19788 (   0.0 sec)
# of grid points (after weights+screening)   ...  19294 (   0.0 sec)
nearest neighbour list constructed           ...    0.0 sec
Grid point re-assignment to atoms done       ...    0.0 sec
Grid point division into batches done        ...    0.1 sec
Reduced shell lists constructed in    0.1 sec

Total number of grid points                  ...    19294
Total number of batches                      ...      304
Average number of points per batch           ...       63
Average number of grid points per atom       ...     3859
Average number of shells per batch           ...    15.70 (87.23%)
Average number of basis functions per batch  ...    29.31 (86.22%)
Average number of large shells per batch     ...    14.78 (94.15%)
Average number of large basis fcns per batch ...    27.51 (93.85%)
Maximum spatial batch extension              ...  20.64, 20.64, 20.64 au
Average spatial batch extension              ...   3.26,  3.11,  3.38 au

Final grid set up in    0.1 sec
Final integration                            ... done (   0.1 sec)
Change in XC energy                          ...    -0.000202274
Integrated number of electrons               ...    10.000007844
Previous integrated no of electrons          ...     9.999706071

----------------
TOTAL SCF ENERGY
----------------

Total Energy       :          -40.48181963 Eh           -1101.56631 eV

Components:
Nuclear Repulsion  :           13.23773950 Eh             360.21720 eV
Electronic Energy  :          -53.71955913 Eh           -1461.78352 eV
One Electron Energy:          -79.40919183 Eh           -2160.83396 eV
Two Electron Energy:           25.68963270 Eh             699.05044 eV

Virial components:
Potential Energy   :          -80.27645969 Eh           -2184.43352 eV
Kinetic Energy     :           39.79464006 Eh            1082.86721 eV
Virial Ratio       :            2.01726814


DFT components:
N(Alpha)           :        5.000003921918 electrons
N(Beta)            :        5.000003921918 electrons
N(Total)           :       10.000007843836 electrons
E(X)               :       -6.537094114355 Eh       
E(C)               :       -0.328126726147 Eh       
E(XC)              :       -6.865220840502 Eh       
DFET-embed. en.    :        0.000000000000 Eh       

---------------
SCF CONVERGENCE
---------------

  Last Energy change         ...   -2.3359e-08  Tolerance :   1.0000e-08
  Last MAX-Density change    ...    1.8767e-06  Tolerance :   1.0000e-07
  Last RMS-Density change    ...    1.4119e-07  Tolerance :   5.0000e-09
  Last Orbital Gradient      ...    6.5079e-07  Tolerance :   1.0000e-05
  Last Orbital Rotation      ...    8.8040e-07  Tolerance :   1.0000e-05

             **** THE GBW FILE WAS UPDATED (orca.gbw) ****
             **** DENSITY FILE WAS UPDATED (orca.scfp) ****
             **** ENERGY FILE WAS UPDATED (orca.en.tmp) ****
             **** THE GBW FILE WAS UPDATED (orca.gbw) ****
             **** DENSITY FILE WAS UPDATED (orca.scfp) ****
----------------
ORBITAL ENERGIES
----------------

  NO   OCC          E(Eh)            E(eV) 
   0   2.0000      -9.902922      -269.4722 
   1   2.0000      -0.615690       -16.7538 
   2   2.0000      -0.344184        -9.3657 
   3   2.0000      -0.343977        -9.3601 
   4   2.0000      -0.343814        -9.3557 
   5   0.0000       0.057092         1.5536 
   6   0.0000       0.119288         3.2460 
   7   0.0000       0.120137         3.2691 
   8   0.0000       0.121842         3.3155 
   9   0.0000       0.383902        10.4465 
  10   0.0000       0.386848        10.5267 
  11   0.0000       0.390347        10.6219 
  12   0.0000       0.600562        16.3421 
  13   0.0000       0.629194        17.1212 
  14   0.0000       0.630327        17.1521 
  15   0.0000       0.631806        17.1923 
  16   0.0000       0.727023        19.7833 
  17   0.0000       1.035547        28.1787 
  18   0.0000       1.035677        28.1822 
  19   0.0000       1.458095        39.6768 
  20   0.0000       1.458395        39.6850 
  21   0.0000       1.458718        39.6937 
  22   0.0000       1.680443        45.7272 
  23   0.0000       1.681826        45.7648 
  24   0.0000       1.681938        45.7679 
  25   0.0000       2.041773        55.5595 
  26   0.0000       2.042588        55.5816 
  27   0.0000       2.043876        55.6167 
  28   0.0000       2.424550        65.9754 
  29   0.0000       2.424943        65.9861 
  30   0.0000       2.483764        67.5866 
  31   0.0000       2.804035        76.3017 
  32   0.0000       2.805022        76.3285 
  33   0.0000       2.805749        76.3483 

                    ********************************
                    * MULLIKEN POPULATION ANALYSIS *
                    ********************************

-----------------------
MULLIKEN ATOMIC CHARGES
-----------------------
   0 C :   -0.190877
   1 H :    0.047774
   2 H :    0.046660
   3 H :    0.050468
   4 H :    0.045975
Sum of atomic charges:    0.0000000

--------------------------------
MULLIKEN REDUCED ORBITAL CHARGES
--------------------------------
  0 C s       :     3.096027  s :     3.096027
      pz      :     1.025989  p :     3.076828
      px      :     1.026688
      py      :     1.024151
      dz2     :     0.005932  d :     0.018023
      dxz     :     0.002248
      dyz     :     0.001827
      dx2y2   :     0.003912
      dxy     :     0.004103
  1 H s       :     0.929447  s :     0.929447
      pz      :     0.005927  p :     0.022779
      px      :     0.007521
      py      :     0.009330
  2 H s       :     0.930655  s :     0.930655
      pz      :     0.005727  p :     0.022685
      px      :     0.006221
      py      :     0.010738
  3 H s       :     0.926713  s :     0.926713
      pz      :     0.012516  p :     0.022819
      px      :     0.005145
      py      :     0.005157
  4 H s       :     0.931203  s :     0.931203
      pz      :     0.006041  p :     0.022822
      px      :     0.011556
      py      :     0.005224


                     *******************************
                     * LOEWDIN POPULATION ANALYSIS *
                     *******************************

----------------------
LOEWDIN ATOMIC CHARGES
----------------------
   0 C :   -0.131658
   1 H :    0.032918
   2 H :    0.032797
   3 H :    0.033213
   4 H :    0.032730

-------------------------------
LOEWDIN REDUCED ORBITAL CHARGES
-------------------------------
  0 C s       :     2.860353  s :     2.860353
      pz      :     1.073949  p :     3.222272
      px      :     1.074583
      py      :     1.073740
      dz2     :     0.016259  d :     0.049033
      dxz     :     0.006075
      dyz     :     0.004947
      dx2y2   :     0.010599
      dxy     :     0.011153
  1 H s       :     0.903736  s :     0.903736
      pz      :     0.015254  p :     0.063346
      px      :     0.020770
      py      :     0.027322
  2 H s       :     0.903961  s :     0.903961
      pz      :     0.014552  p :     0.063242
      px      :     0.016237
      py      :     0.032454
  3 H s       :     0.903443  s :     0.903443
      pz      :     0.038833  p :     0.063344
      px      :     0.012266
      py      :     0.012245
  4 H s       :     0.903850  s :     0.903850
      pz      :     0.015731  p :     0.063420
      px      :     0.035191
      py      :     0.012497


                      *****************************
                      * MAYER POPULATION ANALYSIS *
                      *****************************

  NA   - Mulliken gross atomic population
  ZA   - Total nuclear charge
  QA   - Mulliken gross atomic charge
  VA   - Mayer's total valence
  BVA  - Mayer's bonded valence
  FA   - Mayer's free valence

  ATOM       NA         ZA         QA         VA         BVA        FA
  0 C      6.1909     6.0000    -0.1909     3.9869     3.9869    -0.0000
  1 H      0.9522     1.0000     0.0478     0.9910     0.9910    -0.0000
  2 H      0.9533     1.0000     0.0467     0.9907     0.9907    -0.0000
  3 H      0.9495     1.0000     0.0505     0.9912     0.9912    -0.0000
  4 H      0.9540     1.0000     0.0460     0.9914     0.9914     0.0000

  Mayer bond orders larger than 0.100000
B(  0-C ,  1-H ) :   0.9967 B(  0-C ,  2-H ) :   0.9969 B(  0-C ,  3-H ) :   0.9968 
B(  0-C ,  4-H ) :   0.9966 

-------
TIMINGS
-------

Total SCF time: 0 days 0 hours 0 min 0 sec 

Total time                  ....       0.594 sec
Sum of individual times     ....       0.519 sec  ( 87.4%)

Fock matrix formation       ....       0.410 sec  ( 69.0%)
  Split-RI-J                ....       0.283 sec  ( 69.0% of F)
  XC integration            ....       0.118 sec  ( 28.7% of F)
    Basis function eval.    ....       0.043 sec  ( 36.9% of XC)
    Density eval.           ....       0.015 sec  ( 12.7% of XC)
    XC-Functional eval.     ....       0.035 sec  ( 29.7% of XC)
    XC-Potential eval.      ....       0.016 sec  ( 13.8% of XC)
Diagonalization             ....       0.000 sec  (  0.0%)
Density matrix formation    ....       0.000 sec  (  0.0%)
Population analysis         ....       0.001 sec  (  0.1%)
Initial guess               ....       0.001 sec  (  0.1%)
Orbital Transformation      ....       0.000 sec  (  0.0%)
Orbital Orthonormalization  ....       0.000 sec  (  0.0%)
DIIS solution               ....       0.000 sec  (  0.0%)
SOSCF solution              ....       0.000 sec  (  0.1%)
Grid generation             ....       0.108 sec  ( 18.1%)

-------------------------   --------------------
FINAL SINGLE POINT ENERGY       -40.481819629305
-------------------------   --------------------

                                *** OPTIMIZATION RUN DONE ***

                            ***************************************
                            *     ORCA property calculations      *
                            ***************************************

                                    ---------------------
                                    Active property flags
                                    ---------------------
   (+) Dipole Moment


------------------------------------------------------------------------------
                       ORCA ELECTRIC PROPERTIES CALCULATION
------------------------------------------------------------------------------

Dipole Moment Calculation                       ... on
Quadrupole Moment Calculation                   ... off
Polarizability Calculation                      ... off
GBWName                                         ... orca.gbw
Electron density file                           ... orca.scfp
The origin for moment calculation is the CENTER OF MASS  = (-0.000073, -0.000236  0.000466)

-------------
DIPOLE MOMENT
-------------
                                X             Y             Z
Electronic contribution:      0.00155      -0.00137      -0.00002
Nuclear contribution   :      0.00020       0.00064      -0.00126
                        -----------------------------------------
Total Dipole Moment    :      0.00174      -0.00073      -0.00128
                        -----------------------------------------
Magnitude (a.u.)       :      0.00228
Magnitude (Debye)      :      0.00581



--------------------
Rotational spectrum 
--------------------
 
Rotational constants in cm-1:     5.128047     5.123910     5.121201 
Rotational constants in MHz : 153734.993924 153610.956511 153529.744550 

 Dipole components along the rotational axes: 
x,y,z [a.u.] :    -0.000878     0.000195     0.002100 
x,y,z [Debye]:    -0.002232     0.000496     0.005338 

 

Timings for individual modules:

Sum of individual times         ...        3.602 sec (=   0.060 min)
GTO integral calculation        ...        0.303 sec (=   0.005 min)   8.4 %
SCF iterations                  ...        2.536 sec (=   0.042 min)  70.4 %
SCF Gradient evaluation         ...        0.718 sec (=   0.012 min)  19.9 %
Geometry relaxation             ...        0.045 sec (=   0.001 min)   1.2 %
                             ****ORCA TERMINATED NORMALLY****
TOTAL RUN TIME: 0 days 0 hours 0 minutes 3 seconds 731 msec
